DF-ISE text

Info {
  version   = 1.0
  type      = xyplot
  datasets  = [
    "time"
    "top OuterVoltage" "top InnerVoltage" "top QuasiFermiPotential" "top DisplacementCurrent" "top eCurrent"
    "top hCurrent" "top TotalCurrent" "top Charge" "bottom OuterVoltage" "bottom InnerVoltage"
    "bottom QuasiFermiPotential" "bottom DisplacementCurrent" "bottom eCurrent" "bottom hCurrent" "bottom TotalCurrent"
    "bottom Charge" ]
  functions = [
    Time
    OuterVoltage InnerVoltage QuasiFermiPotential DisplacementCurrent eCurrent
    hCurrent TotalCurrent Charge OuterVoltage InnerVoltage
    QuasiFermiPotential DisplacementCurrent eCurrent hCurrent TotalCurrent
    Charge ]
}

Data {
      0.00000000000000E+00
      0.00000000000000E+00   0.00000000000000E+00   0.00000000000000E+00   0.00000000000000E+00  -5.74772455805995E-25
     -2.53329977631167E-24  -3.10807223211767E-24   4.70034792402844E-15   0.00000000000000E+00   0.00000000000000E+00
      0.00000000000000E+00   0.00000000000000E+00   5.74774011498275E-25   2.53329822061939E-24   3.10807223211767E-24
     -4.70034792402844E-15
      0.00000000000000E+00
      0.00000000000000E+00   0.00000000000000E+00   0.00000000000000E+00   0.00000000000000E+00   2.58957353915475E-25
      3.92820652668443E-26   2.98239419182320E-25   4.70034791862011E-15   0.00000000000000E+00   0.00000000000000E+00
      0.00000000000000E+00   0.00000000000000E+00  -2.58955022440943E-25  -3.92843967413765E-26  -2.98239419182319E-25
     -4.70034791862011E-15
      1.00000000000000E-06
      0.00000000000000E+00   0.00000000000000E+00   0.00000000000000E+00   0.00000000000000E+00  -1.86429055157795E-19
     -4.22004696478759E-20  -2.28629524805671E-19   4.70034330039719E-15   1.00000000000000E-06   1.00000000000000E-06
      0.00000000000000E+00   0.00000000000000E+00   1.74170922366240E-19   5.44586024394313E-20   2.28629524805671E-19
     -4.70034330039719E-15
      3.00000000000000E-06
      0.00000000000000E+00   0.00000000000000E+00   0.00000000000000E+00   0.00000000000000E+00  -3.74508300989216E-20
     -1.27230148310661E-23  -3.74635531137526E-20   4.70033406392528E-15   3.00000000000000E-06   3.00000000000000E-06
      0.00000000000000E+00   0.00000000000000E+00   6.75392267087674E-22   3.67881608466650E-20   3.74635531137526E-20
     -4.70033406392528E-15
      7.00000000000000E-06
      0.00000000000000E+00   0.00000000000000E+00   0.00000000000000E+00   0.00000000000000E+00  -8.73882489699819E-20
     -2.96755304812528E-23  -8.74179245004632E-20   4.70031559091774E-15   7.00000000000000E-06   7.00000000000000E-06
      0.00000000000000E+00   0.00000000000000E+00   1.57585467754336E-21   8.58420698229198E-20   8.74179245004631E-20
     -4.70031559091773E-15
      1.50000000000000E-05
      0.00000000000000E+00   0.00000000000000E+00   0.00000000000000E+00   0.00000000000000E+00  -1.87274767712365E-19
     -6.35792672714770E-23  -1.87338346979637E-19   4.70027864462459E-15   1.50000000000000E-05   1.50000000000000E-05
      0.00000000000000E+00   0.00000000000000E+00   3.37803851889589E-21   1.83960308460741E-19   1.87338346979637E-19
     -4.70027864462459E-15
      3.10000000000000E-05
      0.00000000000000E+00   0.00000000000000E+00   0.00000000000000E+00   0.00000000000000E+00  -3.87089927379519E-19
     -1.31508254199701E-22  -3.87221435633719E-19   4.70020475092596E-15   3.10000000000000E-05   3.10000000000000E-05
      0.00000000000000E+00   0.00000000000000E+00   6.98283036378542E-21   3.80238605269933E-19   3.87221435633719E-19
     -4.70020475092596E-15
      6.30000000000000E-05
      0.00000000000000E+00   0.00000000000000E+00   0.00000000000000E+00   0.00000000000000E+00  -7.86894653224285E-19
     -2.67448067372425E-22  -7.87162101291657E-19   4.70005695907876E-15   6.30000000000000E-05   6.30000000000000E-05
      0.00000000000000E+00   0.00000000000000E+00   1.41999476224329E-20   7.72962153669223E-19   7.87162101291656E-19
     -4.70005695907876E-15
      1.27000000000000E-04
      0.00000000000000E+00   0.00000000000000E+00   0.00000000000000E+00   0.00000000000000E+00  -1.58719967597251E-18
     -5.39341320401862E-22  -1.58773901729291E-18   4.69976135757978E-15   1.27000000000000E-04   1.27000000000000E-04
      0.00000000000000E+00   0.00000000000000E+00   2.86616141131674E-20   1.55907740317974E-18   1.58773901729291E-18
     -4.69976135757978E-15
      2.55000000000000E-04
      0.00000000000000E+00   0.00000000000000E+00   0.00000000000000E+00   0.00000000000000E+00  -3.19059066200213E-18
     -1.07662572553192E-21  -3.19166728772766E-18   4.69917008332475E-15   2.55000000000000E-04   2.55000000000000E-04
      0.00000000000000E+00   0.00000000000000E+00   5.76881455329674E-20   3.13397914219470E-18   3.19166728772767E-18
     -4.69917008332475E-15
      5.11000000000000E-04
      0.00000000000000E+00   0.00000000000000E+00   0.00000000000000E+00   0.00000000000000E+00  -6.40851527596249E-18
     -2.02521547134890E-21  -6.41054049143384E-18   4.69798724947657E-15   5.11000000000000E-04   5.11000000000000E-04
      0.00000000000000E+00   0.00000000000000E+00   1.16131281078961E-19   6.29440921035488E-18   6.41054049143384E-18
     -4.69798724947657E-15
      1.02300000000000E-03
      0.00000000000000E+00   0.00000000000000E+00   0.00000000000000E+00   0.00000000000000E+00  -1.28887433841113E-17
     -1.76782471001067E-21  -1.28905112088213E-17   4.69562043795137E-15   1.02300000000000E-03   1.02300000000000E-03
      0.00000000000000E+00   0.00000000000000E+00   2.34051504429950E-19   1.26564597043913E-17   1.28905112088213E-17
     -4.69562043795138E-15
      2.04700000000000E-03
      0.00000000000000E+00   0.00000000000000E+00   0.00000000000000E+00   0.00000000000000E+00  -2.60207332417424E-17
      3.48938375523264E-20  -2.59858394041901E-17   4.69088221981456E-15   2.04700000000000E-03   2.04700000000000E-03
      0.00000000000000E+00   0.00000000000000E+00   4.65338909089715E-19   2.55205004951004E-17   2.59858394041901E-17
     -4.69088221981455E-15
      4.09500000000000E-03
      0.00000000000000E+00   0.00000000000000E+00   0.00000000000000E+00   0.00000000000000E+00  -5.30821900360069E-17
     -1.88168161937618E-20  -5.31010068522007E-17   4.68138724553541E-15   4.09500000000000E-03   4.09500000000000E-03
      0.00000000000000E+00   0.00000000000000E+00   9.98903361074279E-19   5.21021034911263E-17   5.31010068522006E-17
     -4.68138724553541E-15
      8.05446666666667E-03
      0.00000000000000E+00   0.00000000000000E+00   0.00000000000000E+00   0.00000000000000E+00  -1.08416149321703E-16
     -4.00762647613416E-20  -1.08456225586464E-16   4.66295904918130E-15   8.05446666666667E-03   8.05446666666667E-03
      0.00000000000000E+00   0.00000000000000E+00   2.12742315735335E-18   1.06328802429111E-16   1.08456225586464E-16
     -4.66295904918129E-15
      1.30544666666667E-02
      0.00000000000000E+00   0.00000000000000E+00   0.00000000000000E+00   0.00000000000000E+00  -1.84599925889685E-16
     -7.20221537651426E-20  -1.84671948043450E-16   4.63955045116982E-15   1.30544666666667E-02   1.30544666666667E-02
      0.00000000000000E+00   0.00000000000000E+00   3.82304012575000E-18   1.80848907917700E-16   1.84671948043450E-16
     -4.63955045116982E-15
      1.80544666666667E-02
      0.00000000000000E+00   0.00000000000000E+00   0.00000000000000E+00   0.00000000000000E+00  -2.68724518989834E-16
     -1.10783949828668E-19  -2.68835302939663E-16   4.61598371324961E-15   1.80544666666667E-02   1.80544666666667E-02
      0.00000000000000E+00   0.00000000000000E+00   5.88035136077092E-18   2.62954951578892E-16   2.68835302939663E-16
     -4.61598371324961E-15
      2.30544666666667E-02
      0.00000000000000E+00   0.00000000000000E+00   0.00000000000000E+00   0.00000000000000E+00  -3.61871666076705E-16
     -1.57815489414895E-19  -3.62029481566120E-16   4.59225406167157E-15   2.30544666666667E-02   2.30544666666667E-02
      0.00000000000000E+00   0.00000000000000E+00   8.37651601851567E-18   3.53652965547604E-16   3.62029481566120E-16
     -4.59225406167157E-15
      2.80544666666667E-02
      0.00000000000000E+00   0.00000000000000E+00   0.00000000000000E+00   0.00000000000000E+00  -4.65258263176190E-16
     -2.14882190692501E-19  -4.65473145366883E-16   4.56835697244677E-15   2.80544666666667E-02   2.80544666666667E-02
      0.00000000000000E+00   0.00000000000000E+00   1.14051575007668E-17   4.54067987866117E-16   4.65473145366883E-16
     -4.56835697244676E-15
      3.30544666666667E-02
      0.00000000000000E+00   0.00000000000000E+00   0.00000000000000E+00   0.00000000000000E+00  -5.80252969566525E-16
     -2.84125516043434E-19  -5.80537095082568E-16   4.54428821137222E-15   3.30544666666667E-02   3.30544666666667E-02
      0.00000000000000E+00   0.00000000000000E+00   1.50798668701478E-17   5.65457228212421E-16   5.80537095082569E-16
     -4.54428821137222E-15
      3.80544666666667E-02
      0.00000000000000E+00   0.00000000000000E+00   0.00000000000000E+00   0.00000000000000E+00  -7.08395044377038E-16
     -3.68143359987941E-19  -7.08763187737026E-16   4.52004387081001E-15   3.80544666666667E-02   3.80544666666667E-02
      0.00000000000000E+00   0.00000000000000E+00   1.95384750791108E-17   6.89224712657916E-16   7.08763187737027E-16
     -4.52004387081001E-15
      4.30544666666667E-02
      0.00000000000000E+00   0.00000000000000E+00   0.00000000000000E+00   0.00000000000000E+00  -8.51415703499441E-16
     -4.70088144317032E-19  -8.51885791643758E-16   4.49562040230959E-15   4.30544666666667E-02   4.30544666666667E-02
      0.00000000000000E+00   0.00000000000000E+00   2.49482093653924E-17   8.26937582278366E-16   8.51885791643759E-16
     -4.49562040230959E-15
      4.80544666666667E-02
      0.00000000000000E+00   0.00000000000000E+00   0.00000000000000E+00   0.00000000000000E+00  -1.01126243338713E-15
     -5.93785141015015E-19  -1.01185621852814E-15   4.47101464428264E-15   4.80544666666667E-02   4.80544666666667E-02
      0.00000000000000E+00   0.00000000000000E+00   3.15119771491333E-17   9.80344241379008E-16   1.01185621852814E-15
     -4.47101464428265E-15
      5.30544666666667E-02
      0.00000000000000E+00   0.00000000000000E+00   0.00000000000000E+00   0.00000000000000E+00  -1.19012667095850E-15
     -7.43875581286853E-19  -1.19087054653979E-15   4.44622384409459E-15   5.30544666666667E-02   5.30544666666667E-02
      0.00000000000000E+00   0.00000000000000E+00   3.94759706917722E-17   1.15139457584801E-15   1.19087054653979E-15
     -4.44622384409459E-15
      5.80544666666667E-02
      0.00000000000000E+00   0.00000000000000E+00   0.00000000000000E+00   0.00000000000000E+00  -1.39047539977149E-15
     -9.25990806044415E-19  -1.39140139057754E-15   4.42124567411930E-15   5.80544666666667E-02   5.80544666666667E-02
      0.00000000000000E+00   0.00000000000000E+00   4.91389010871516E-17   1.34226248949039E-15   1.39140139057754E-15
     -4.42124567411930E-15
      6.30544666666667E-02
      0.00000000000000E+00   0.00000000000000E+00   0.00000000000000E+00   0.00000000000000E+00  -1.61508728152137E-15
     -1.14696410545265E-18  -1.61623424562682E-15   4.39607824150226E-15   6.30544666666667E-02   6.30544666666667E-02
      0.00000000000000E+00   0.00000000000000E+00   6.08632100200666E-17   1.55537103560676E-15   1.61623424562682E-15
     -4.39607824150226E-15
      6.80544666666667E-02
      0.00000000000000E+00   0.00000000000000E+00   0.00000000000000E+00   0.00000000000000E+00  -1.86709401734500E-15
     -1.41508600154081E-18  -1.86850910334654E-15   4.37072009158115E-15   6.80544666666667E-02   6.80544666666667E-02
      0.00000000000000E+00   0.00000000000000E+00   7.50886502522040E-17   1.79342045309434E-15   1.86850910334654E-15
     -4.37072009158115E-15
      7.30544666666667E-02
      0.00000000000000E+00   0.00000000000000E+00   0.00000000000000E+00   0.00000000000000E+00  -2.15002784673651E-15
     -1.74041729197104E-18  -2.15176826402848E-15   4.34517020510934E-15   7.30544666666667E-02   7.30544666666667E-02
      0.00000000000000E+00   0.00000000000000E+00   9.23488017513369E-17   2.05941946227714E-15   2.15176826402848E-15
     -4.34517020510934E-15
      7.80544666666667E-02
      0.00000000000000E+00   0.00000000000000E+00   0.00000000000000E+00   0.00000000000000E+00  -2.46787610333523E-15
     -2.13516374022440E-18  -2.47001126707546E-15   4.31942798960761E-15   7.80544666666667E-02   7.80544666666667E-02
      0.00000000000000E+00   0.00000000000000E+00   1.13291059355069E-16   2.35672020772039E-15   2.47001126707546E-15
     -4.31942798960761E-15
      8.30544666666667E-02
      0.00000000000000E+00   0.00000000000000E+00   0.00000000000000E+00   0.00000000000000E+00  -2.82514410853358E-15
     -2.61413709018017E-18  -2.82775824562376E-15   4.29349326532319E-15   8.30544666666667E-02   8.30544666666667E-02
      0.00000000000000E+00   0.00000000000000E+00   1.38700941192963E-16   2.68905730443080E-15   2.82775824562376E-15
     -4.29349326532319E-15
      8.80544666666667E-02
      0.00000000000000E+00   0.00000000000000E+00   0.00000000000000E+00   0.00000000000000E+00  -3.22692770298486E-15
     -3.19530861015458E-18  -3.23012301159502E-15   4.26736624639711E-15   8.80544666666667E-02   8.80544666666667E-02
      0.00000000000000E+00   0.00000000000000E+00   1.69531531108899E-16   3.06059148048612E-15   3.23012301159502E-15
     -4.26736624639710E-15
      9.30544666666667E-02
      0.00000000000000E+00   0.00000000000000E+00   0.00000000000000E+00   0.00000000000000E+00  -3.67899716624081E-15
     -3.90048318884668E-18  -3.68289764942965E-15   4.24104751792771E-15   9.30544666666667E-02   9.30544666666667E-02
      0.00000000000000E+00   0.00000000000000E+00   2.06939255558513E-16   3.47595839387114E-15   3.68289764942965E-15
     -4.24104751792771E-15
      9.80544666666667E-02
      0.00000000000000E+00   0.00000000000000E+00   0.00000000000000E+00   0.00000000000000E+00  -4.18789437417204E-15
     -4.75612075938241E-18  -4.19265049493142E-15   4.21453800966920E-15   9.80544666666667E-02   9.80544666666667E-02
      0.00000000000000E+00   0.00000000000000E+00   2.52327222932168E-16   3.94032327199926E-15   4.19265049493142E-15
     -4.21453800966919E-15
      1.03054466666667E-01
      0.00000000000000E+00   0.00000000000000E+00   0.00000000000000E+00   0.00000000000000E+00  -4.76104565598778E-15
     -5.79432519591395E-18  -4.76683998118370E-15   4.18783896712036E-15   1.03054466666667E-01   1.03054466666667E-01
      0.00000000000000E+00   0.00000000000000E+00   3.07397882983316E-16   4.45944209820037E-15   4.76683998118369E-15
     -4.18783896712036E-15
      1.08054466666667E-01
      0.00000000000000E+00   0.00000000000000E+00   0.00000000000000E+00   0.00000000000000E+00  -5.40689302376137E-15
     -7.05405062881191E-18  -5.41394707439018E-15   4.16095192074527E-15   1.08054466666667E-01   1.08054466666667E-01
      0.00000000000000E+00   0.00000000000000E+00   3.74216880496175E-16   5.03973019389401E-15   5.41394707439018E-15
     -4.16095192074527E-15
      1.13054466666667E-01
      0.00000000000000E+00   0.00000000000000E+00   0.00000000000000E+00   0.00000000000000E+00  -6.13504710027766E-15
     -8.58256514569816E-18  -6.14362966542336E-15   4.13387865402728E-15   1.13054466666667E-01   1.13054466666667E-01
      0.00000000000000E+00   0.00000000000000E+00   4.55290521361820E-16   5.68833914406154E-15   6.14362966542336E-15
     -4.13387865402729E-15
      1.18054466666667E-01
      0.00000000000000E+00   0.00000000000000E+00   0.00000000000000E+00   0.00000000000000E+00  -6.95646572045702E-15
     -1.04372166522537E-17  -6.96690293710927E-15   4.10662117099855E-15   1.18054466666667E-01   1.18054466666667E-01
      0.00000000000000E+00   0.00000000000000E+00   5.53659793151682E-16   6.41324314395759E-15   6.96690293710928E-15
     -4.10662117099856E-15
      1.23054466666667E-01
      0.00000000000000E+00   0.00000000000000E+00   0.00000000000000E+00   0.00000000000000E+00  -7.88366288889547E-15
     -1.26875964705667E-17  -7.89635048536604E-15   4.07918166381259E-15   1.23054466666667E-01   1.23054466666667E-01
      0.00000000000000E+00   0.00000000000000E+00   6.73014444546882E-16   7.22333604081915E-15   7.89635048536603E-15
     -4.07918166381259E-15
      1.28054466666667E-01
      0.00000000000000E+00   0.00000000000000E+00   0.00000000000000E+00   0.00000000000000E+00  -8.93095368209033E-15
     -1.54181405172984E-17  -8.94637182260763E-15   4.05156248084532E-15   1.28054466666667E-01   1.28054466666667E-01
      0.00000000000000E+00   0.00000000000000E+00   8.17831366118909E-16   8.12854045648872E-15   8.94637182260763E-15
     -4.05156248084532E-15
      1.33054466666667E-01
      0.00000000000000E+00   0.00000000000000E+00   0.00000000000000E+00   0.00000000000000E+00  -1.01147418695954E-14
     -1.87313015386262E-17  -1.01334731711340E-14   4.02376609572321E-15   1.33054466666667E-01   1.33054466666667E-01
      0.00000000000000E+00   0.00000000000000E+00   9.93542505849542E-16   9.13993066528450E-15   1.01334731711340E-14
     -4.02376609572321E-15
      1.38054466666667E-01
      0.00000000000000E+00   0.00000000000000E+00   0.00000000000000E+00   0.00000000000000E+00  -1.14538583723523E-14
     -2.27513991113459E-17  -1.14766097714637E-14   3.99579507759206E-15   1.38054466666667E-01   1.38054466666667E-01
      0.00000000000000E+00   0.00000000000000E+00   1.20673867034082E-15   1.02698711011229E-14   1.14766097714637E-14
     -3.99579507759206E-15
      1.43054466666667E-01
      0.00000000000000E+00   0.00000000000000E+00   0.00000000000000E+00   0.00000000000000E+00  -1.29699600404257E-14
     -2.76292651191235E-17  -1.29975893055448E-14   3.96765206285798E-15   1.43054466666667E-01   1.43054466666667E-01
      0.00000000000000E+00   0.00000000000000E+00   1.46541666287533E-15   1.15321726426695E-14   1.29975893055448E-14
     -3.96765206285798E-15
      1.48054466666667E-01
      0.00000000000000E+00   0.00000000000000E+00   0.00000000000000E+00   0.00000000000000E+00  -1.46880006703313E-14
     -3.35479272192481E-17  -1.47215485975506E-14   3.93933972855738E-15   1.48054466666667E-01   1.48054466666667E-01
      0.00000000000000E+00   0.00000000000000E+00   1.77927933958698E-15   1.29422692579636E-14   1.47215485975506E-14
     -3.93933972855738E-15
      1.53054466666667E-01
      0.00000000000000E+00   0.00000000000000E+00   0.00000000000000E+00   0.00000000000000E+00  -1.66367878524116E-14
     -4.07294615679369E-17  -1.66775173139795E-14   3.91086076744547E-15   1.53054466666667E-01   1.53054466666667E-01
      0.00000000000000E+00   0.00000000000000E+00   2.16009947524843E-15   1.45174178387311E-14   1.66775173139795E-14
     -3.91086076744547E-15
      1.58054466666667E-01
      0.00000000000000E+00   0.00000000000000E+00   0.00000000000000E+00   0.00000000000000E+00  -1.88496427481982E-14
     -4.94433214297391E-17  -1.88990860696279E-14   3.88221786483501E-15   1.58054466666667E-01   1.58054466666667E-01
      0.00000000000000E+00   0.00000000000000E+00   2.62216141786078E-15   1.62769246517672E-14   1.88990860696279E-14
     -3.88221786483501E-15
      1.63054466666667E-01
      0.00000000000000E+00   0.00000000000000E+00   0.00000000000000E+00   0.00000000000000E+00  -2.13651827414595E-14
     -6.00164682900238E-17  -2.14251992097495E-14   3.85341367716797E-15   1.63054466666667E-01   1.63054466666667E-01
      0.00000000000000E+00   0.00000000000000E+00   3.18279685987159E-15   1.82424023498779E-14   2.14251992097495E-14
     -3.85341367716796E-15
      1.68054466666667E-01
      0.00000000000000E+00   0.00000000000000E+00   0.00000000000000E+00   0.00000000000000E+00  -2.42282513698302E-14
     -7.28456154937379E-17  -2.43010969853239E-14   3.82445081226292E-15   1.68054466666667E-01   1.68054466666667E-01
      0.00000000000000E+00   0.00000000000000E+00   3.86303493483620E-15   2.04380620504877E-14   2.43010969853239E-14
     -3.82445081226292E-15
      1.73054466666667E-01
      0.00000000000000E+00   0.00000000000000E+00   0.00000000000000E+00   0.00000000000000E+00  -2.74910248471391E-14
     -8.84121289583953E-17  -2.75794369760975E-14   3.79533181114981E-15   1.73054466666667E-01   1.73054466666667E-01
      0.00000000000000E+00   0.00000000000000E+00   4.68839106572131E-15   2.28910459103762E-14   2.75794369760975E-14
     -3.79533181114981E-15
      1.78054466666667E-01
      0.00000000000000E+00   0.00000000000000E+00   0.00000000000000E+00   0.00000000000000E+00  -3.12143303407882E-14
     -1.07300082283253E-16  -3.13216304230715E-14   3.76605913137956E-15   1.78054466666667E-01   1.78054466666667E-01
      0.00000000000000E+00   0.00000000000000E+00   5.68982403602668E-15   2.56318063870448E-14   3.13216304230715E-14
     -3.76605913137956E-15
      1.83054466666667E-01
      0.00000000000000E+00   0.00000000000000E+00   0.00000000000000E+00   0.00000000000000E+00  -3.54692185557533E-14
     -1.30218173036457E-16  -3.55994367287897E-14   3.73663513167932E-15   1.83054466666667E-01   1.83054466666667E-01
      0.00000000000000E+00   0.00000000000000E+00   6.90489718564957E-15   2.86945395431402E-14   3.55994367287897E-14
     -3.73663513167932E-15
      1.88054466666667E-01
      0.00000000000000E+00   0.00000000000000E+00   0.00000000000000E+00   0.00000000000000E+00  -4.03388421741368E-14
     -1.58026315781876E-16  -4.04968684899187E-14   3.70706205781278E-15   1.88054466666667E-01   1.88054466666667E-01
      0.00000000000000E+00   0.00000000000000E+00   8.37918749854571E-15   3.21176809913729E-14   4.04968684899186E-14
     -3.70706205781278E-15
      1.93054466666667E-01
      0.00000000000000E+00   0.00000000000000E+00   0.00000000000000E+00   0.00000000000000E+00  -4.59207018583222E-14
     -1.91767886575760E-16  -4.61124697448979E-14   3.67734202949858E-15   1.93054466666667E-01   1.93054466666667E-01
      0.00000000000000E+00   0.00000000000000E+00   1.01679951660609E-14   3.59444745788370E-14   4.61124697448980E-14
     -3.67734202949857E-15
      1.98054466666667E-01
      0.00000000000000E+00   0.00000000000000E+00   0.00000000000000E+00   0.00000000000000E+00  -5.23293347822265E-14
     -2.32708924133332E-16  -5.25620437063598E-14   3.64747702823776E-15   1.98054466666667E-01   1.98054466666667E-01
      0.00000000000000E+00   0.00000000000000E+00   1.23384178726197E-14   4.02236258337401E-14   5.25620437063598E-14
     -3.64747702823775E-15
      2.03054466666667E-01
      0.00000000000000E+00   0.00000000000000E+00   0.00000000000000E+00   0.00000000000000E+00  -5.96995361718937E-14
     -2.82385567224107E-16  -5.99819217391178E-14   3.61746888590174E-15   2.03054466666667E-01   2.03054466666667E-01
      0.00000000000000E+00   0.00000000000000E+00   1.49718676726046E-14   4.50100540665133E-14   5.99819217391179E-14
     -3.61746888590174E-15
      2.08054466666667E-01
      0.00000000000000E+00   0.00000000000000E+00   0.00000000000000E+00   0.00000000000000E+00  -6.81902229704678E-14
     -3.42661734666141E-16  -6.85328847051339E-14   3.58731927393606E-15   2.08054466666667E-01   2.08054466666667E-01
      0.00000000000000E+00   0.00000000000000E+00   1.81671247057483E-14   5.03657599993856E-14   6.85328847051339E-14
     -3.58731927393606E-15
      2.13054466666667E-01
      0.00000000000000E+00   0.00000000000000E+00   0.00000000000000E+00   0.00000000000000E+00  -7.79890719684780E-14
     -4.15799031170176E-16  -7.84048709996482E-14   3.55702969304034E-15   2.13054466666667E-01   2.13054466666667E-01
      0.00000000000000E+00   0.00000000000000E+00   2.20440425362993E-14   5.63608284633488E-14   7.84048709996482E-14
     -3.55702969304034E-15
      2.18054466666667E-01
      0.00000000000000E+00   0.00000000000000E+00   0.00000000000000E+00   0.00000000000000E+00  -8.93180917767032E-14
     -5.04541665676187E-16  -8.98226334423794E-14   3.52660146319184E-15   2.18054466666667E-01   2.18054466666667E-01
      0.00000000000000E+00   0.00000000000000E+00   2.67480437302971E-14   6.30745897120822E-14   8.98226334423793E-14
     -3.52660146319184E-15
      2.23054466666667E-01
      0.00000000000000E+00   0.00000000000000E+00   0.00000000000000E+00   0.00000000000000E+00  -1.02440322435726E-13
     -6.12219301706640E-16  -1.03052541737432E-13   3.49603571388826E-15   2.23054466666667E-01   2.23054466666667E-01
      0.00000000000000E+00   0.00000000000000E+00   3.24555748711517E-14   7.05969668662805E-14   1.03052541737432E-13
     -3.49603571388826E-15
      2.28054466666667E-01
      0.00000000000000E+00   0.00000000000000E+00   0.00000000000000E+00   0.00000000000000E+00  -1.17667895623057E-13
     -7.42872120556183E-16  -1.18410767743613E-13   3.46533337449412E-15   2.28054466666667E-01   2.28054466666667E-01
      0.00000000000000E+00   0.00000000000000E+00   3.93807247999054E-14   7.90300429437074E-14   1.18410767743613E-13
     -3.46533337449412E-15
      2.33054466666667E-01
      0.00000000000000E+00   0.00000000000000E+00   0.00000000000000E+00   0.00000000000000E+00  -1.35371739476326E-13
     -9.01402328274251E-16  -1.36273141804600E-13   3.43449516458513E-15   2.33054466666667E-01   2.33054466666667E-01
      0.00000000000000E+00   0.00000000000000E+00   4.77832554422081E-14   8.84898863623923E-14   1.36273141804600E-13
     -3.43449516458513E-15
      2.38054466666667E-01
      0.00000000000000E+00   0.00000000000000E+00   0.00000000000000E+00   0.00000000000000E+00  -1.55993269180594E-13
     -1.09375807439221E-15  -1.57087027254986E-13   3.40352158419512E-15   2.38054466666667E-01   2.38054466666667E-01
      0.00000000000000E+00   0.00000000000000E+00   5.79783451472368E-14   9.91086821077495E-14   1.57087027254986E-13
     -3.40352158419513E-15
      2.43054466666667E-01
      0.00000000000000E+00   0.00000000000000E+00   0.00000000000000E+00   0.00000000000000E+00  -1.80058479151406E-13
     -1.32715673164289E-15  -1.81385635883049E-13   3.37241290388160E-15   2.43054466666667E-01   2.43054466666667E-01
      0.00000000000000E+00   0.00000000000000E+00   7.03484112757986E-14   1.11037224607251E-13   1.81385635883049E-13
     -3.37241290388160E-15
      2.48054466666667E-01
      0.00000000000000E+00   0.00000000000000E+00   0.00000000000000E+00   0.00000000000000E+00  -2.08194937824024E-13
     -1.61035554580983E-15  -2.09805293369834E-13   3.34116915453741E-15   2.48054466666667E-01   2.48054466666667E-01
      0.00000000000000E+00   0.00000000000000E+00   8.53574545105080E-14   1.24447838859326E-13   2.09805293369834E-13
     -3.34116915453741E-15
      2.53054466666667E-01
      0.00000000000000E+00   0.00000000000000E+00   0.00000000000000E+00   0.00000000000000E+00  -2.41152293830362E-13
     -1.95398035397070E-15  -2.43106274184333E-13   3.30979011688938E-15   2.53054466666667E-01   2.53054466666667E-01
      0.00000000000000E+00   0.00000000000000E+00   1.03568463795895E-13   1.39537810388438E-13   2.43106274184333E-13
     -3.30979011688938E-15
      2.58054466666667E-01
      0.00000000000000E+00   0.00000000000000E+00   0.00000000000000E+00   0.00000000000000E+00  -2.79827028801793E-13
     -2.37092420654834E-15  -2.82197953008341E-13   3.27827531063822E-15   2.58054466666667E-01   2.58054466666667E-01
      0.00000000000000E+00   0.00000000000000E+00   1.25664533655829E-13   1.56533419352513E-13   2.82197953008341E-13
     -3.27827531063821E-15
      2.63054466666667E-01
      0.00000000000000E+00   0.00000000000000E+00   0.00000000000000E+00   0.00000000000000E+00  -3.25292350096186E-13
     -2.87683102487508E-15  -3.28169181121061E-13   3.24662398320949E-15   2.63054466666667E-01   2.63054466666667E-01
      0.00000000000000E+00   0.00000000000000E+00   1.52474487329681E-13   1.75694693791381E-13   3.28169181121061E-13
     -3.24662398320949E-15
      2.68054466666667E-01
      0.00000000000000E+00   0.00000000000000E+00   0.00000000000000E+00   0.00000000000000E+00  -3.78834302796785E-13
     -3.49068278925406E-15  -3.82324985586039E-13   3.21483509810221E-15   2.68054466666667E-01   2.68054466666667E-01
      0.00000000000000E+00   0.00000000000000E+00   1.85003965537472E-13   1.97321020048567E-13   3.82324985586039E-13
     -3.21483509810221E-15
      2.73054466666667E-01
      0.00000000000000E+00   0.00000000000000E+00   0.00000000000000E+00   0.00000000000000E+00  -4.41995411544004E-13
     -4.23551153518979E-15  -4.46230923079194E-13   3.18290732284021E-15   2.73054466666667E-01   2.73054466666667E-01
      0.00000000000000E+00   0.00000000000000E+00   2.24473148220981E-13   2.21757774858213E-13   4.46230923079194E-13
     -3.18290732284021E-15
      2.78054466666667E-01
      0.00000000000000E+00   0.00000000000000E+00   0.00000000000000E+00   0.00000000000000E+00  -5.16627437513361E-13
     -5.13926358698656E-15  -5.21766701100348E-13   3.15083901655252E-15   2.78054466666667E-01   2.78054466666667E-01
      0.00000000000000E+00   0.00000000000000E+00   2.72362522863333E-13   2.49404178237015E-13   5.21766701100348E-13
     -3.15083901655252E-15
      2.83054466666667E-01
      0.00000000000000E+00   0.00000000000000E+00   0.00000000000000E+00   0.00000000000000E+00  -6.04955174640078E-13
     -6.23584820303440E-15  -6.11191022843112E-13   3.11862821723232E-15   2.83054466666667E-01   2.83054466666667E-01
      0.00000000000000E+00   0.00000000000000E+00   3.30468417466442E-13   2.80722605376670E-13   6.11191022843112E-13
     -3.11862821723232E-15
      2.88054466666667E-01
      0.00000000000000E+00   0.00000000000000E+00   0.00000000000000E+00   0.00000000000000E+00  -7.09653614204337E-13
     -7.56640959936704E-15  -7.17220023803704E-13   3.08627262875025E-15   2.88054466666667E-01   2.88054466666667E-01
      0.00000000000000E+00   0.00000000000000E+00   4.00970379954769E-13   3.16249643848935E-13   7.17220023803704E-13
     -3.08627262875025E-15
      2.93054466666667E-01